Glycine aRginine prOline Methionine Alanine Cystine Serine
   42
    1ACE    CH3    1   2.099   2.553   2.404
    1ACE     H1    2   2.067   2.642   2.434
    1ACE     H2    3   2.045   2.523   2.325
    1ACE     H3    4   2.089   2.486   2.478
    1ACE      C    5   2.245   2.562   2.364
    1ACE      O    6   2.306   2.463   2.322
    2ALA      N    7   2.306   2.675   2.373
    2ALA      H    8   2.258   2.756   2.407
    2ALA     CA    9   2.447   2.682   2.334
    2ALA     HA   10   2.455   2.655   2.239
    2ALA     CB   11   2.493   2.828   2.354
    2ALA    HB1   12   2.589   2.836   2.328
    2ALA    HB2   13   2.438   2.888   2.296
    2ALA    HB3   14   2.482   2.854   2.450
    2ALA      C   15   2.530   2.584   2.413
    2ALA      O   16   2.612   2.510   2.358
    3ALA      N   17   2.514   2.576   2.541
    3ALA      H   18   2.448   2.635   2.587
    3ALA     CA   19   2.595   2.481   2.617
    3ALA     HA   20   2.691   2.502   2.602
    3ALA     CB   21   2.557   2.496   2.765
    3ALA    HB1   22   2.610   2.431   2.819
    3ALA    HB2   23   2.576   2.589   2.795
    3ALA    HB3   24   2.459   2.476   2.776
    3ALA      C   25   2.575   2.341   2.565
    3ALA      O   26   2.670   2.265   2.542
    4ALA      N   27   2.455   2.298   2.543
    4ALA      H   28   2.376   2.358   2.560
    4ALA     CA   29   2.436   2.162   2.493
    4ALA     HA   30   2.476   2.098   2.559
    4ALA     CB   31   2.284   2.139   2.479
    4ALA    HB1   32   2.268   2.046   2.445
    4ALA    HB2   33   2.240   2.149   2.568
    4ALA    HB3   34   2.246   2.205   2.415
    4ALA      C   35   2.510   2.141   2.364
    4ALA      O   36   2.581   2.042   2.344
    5NME      N   37   2.500   2.230   2.271
    5NME      H   38   2.444   2.312   2.285
    5NME      C   39   2.572   2.213   2.145
    5NME     H1   40   2.553   2.290   2.085
    5NME     H2   41   2.670   2.207   2.163
    5NME     H3   42   2.541   2.128   2.101
   4.87180   4.87180   4.87180
