TITLE
sw dimer
END
POSITION
    1 SM2   OW1        1    0.105589126    1.683747627    2.473256543
    1 SM2   HW2        2    0.169054476    1.625271429    2.430233329
    1 SM2   HW3        3    0.158294176    1.733694494    2.535445150
    1 SM2   DW         4    0.119211950    1.682747427    2.475503990
    1 SM2   SW         5    0.117933880    1.683816442    2.476262471
    2 SM2   OW1        6    0.281166272    1.495951726    2.328371342
    2 SM2   HW2        7    0.273838350    1.511998272    2.233969836
    2 SM2   HW3        8    0.248561139    1.406400039    2.340213452
    2 SM2   DW         9    0.276483487    1.487332081    2.318689942
    2 SM2   SW        10    0.275562577    1.489119972    2.320247878
END
VELOCITY
    1 SM2   OW1        1   -0.0323        -0.1093         0.1991
    1 SM2   HW2        2    0.0571         0.0179        -0.0260
    1 SM2   HW3        3    0.1337         0.2872        -0.0843
    1 SM2   DW         4    0.1244        -0.0608        -0.1022
    1 SM2   SW         5   -0.0697         0.0925         0.1306
    2 SM2   OW1        6    0.0233         0.0355        -0.0642
    2 SM2   HW2        7    0.0118        -0.0021        -0.0001
    2 SM2   HW3        8    0.0164         0.0642        -0.2913
    2 SM2   DW         9   -0.0934        -0.0570         0.0330
    2 SM2   SW        10   -0.1188        -0.2236        -0.0253
END
BOX
   14.500100000   14.500100000   14.500100000
END
